   4    4
1 1
     7.484564248200000     0.000000000000000    -0.000000000000000
     0.000000000000000     7.484564902100000     0.000000000000000
    -0.000000000000000     0.000000000000000    11.357656451700000
1 2
    -0.311168123500000    -0.000000000000000     0.000000000000000
    -0.000000000000000    -0.311168123500000    -0.000000000000000
    -0.000000000000000     0.000000000000000    -4.854924361300000
1 3
    -0.010014855013082    -0.000000000000000    -0.000000000000000
    -0.000000000000000    -0.010014855013082     0.000000000000000
    -0.000000000000000    -0.000000000000000    -4.926102174310609
1 4
    -7.164860229610687    -0.000000000000000     0.000000000000000
    -0.000000000000000    -7.164860876523355     0.000000000000000
    -0.000000000000000    -0.000000000000000    -1.582056304822715
2 1
    -0.311168123500000    -0.000000000000000    -0.000000000000000
    -0.000000000000000    -0.311168123500000     0.000000000000000
     0.000000000000000    -0.000000000000000    -4.854924361300000
2 2
     7.484564248200000     0.000000000000000     0.000000000000000
     0.000000000000000     7.484564902100000    -0.000000000000000
     0.000000000000000    -0.000000000000000    11.357656451700000
2 3
    -7.164860229610687    -0.000000000000000    -0.000000000000000
    -0.000000000000000    -7.164860876523355     0.000000000000000
     0.000000000000000     0.000000000000000    -1.582056304822715
2 4
    -0.010014855013082    -0.000000000000000    -0.000000000000000
    -0.000000000000000    -0.010014855013082    -0.000000000000000
     0.000000000000000    -0.000000000000000    -4.926102174310609
3 1
    -0.010014855013082    -0.000000000000000    -0.000000000000000
    -0.000000000000000    -0.010014855013082    -0.000000000000000
    -0.000000000000000     0.000000000000000    -4.926102174310609
3 2
    -7.164860229610687    -0.000000000000000     0.000000000000000
    -0.000000000000000    -7.164860876523355     0.000000000000000
    -0.000000000000000     0.000000000000000    -1.582056304822715
3 3
     8.122790080000000     0.000000000000000    -0.000000000000000
     0.000000000000000     8.122790719999999    -0.000000000000000
    -0.000000000000000    -0.000000000000000    11.473050720000000
3 4
    -0.946435680000000    -0.000000000000000     0.000000000000000
    -0.000000000000000    -0.946435840000000    -0.000000000000000
     0.000000000000000     0.000000000000000    -4.959465600000000
4 1
    -7.164860229610687    -0.000000000000000    -0.000000000000000
    -0.000000000000000    -7.164860876523355    -0.000000000000000
     0.000000000000000     0.000000000000000    -1.582056304822715
4 2
    -0.010014855013082    -0.000000000000000     0.000000000000000
    -0.000000000000000    -0.010014855013082    -0.000000000000000
    -0.000000000000000    -0.000000000000000    -4.926102174310609
4 3
    -0.946435680000000    -0.000000000000000     0.000000000000000
    -0.000000000000000    -0.946435840000000     0.000000000000000
     0.000000000000000    -0.000000000000000    -4.959465600000000
4 4
     8.122790080000000     0.000000000000000     0.000000000000000
     0.000000000000000     8.122790719999999     0.000000000000000
     0.000000000000000     0.000000000000000    11.473050720000000