   4    4
1 1
     7.531214128100000     0.000000000000000    -0.000000000000000
     0.000000000000000     7.531214782000000     0.000000000000000
    -0.000000000000000     0.000000000000000    11.373752854099999
1 2
    -0.301685265700000    -0.000000000000000    -0.000000000000000
    -0.000000000000000    -0.301685265700000    -0.000000000000000
     0.000000000000000     0.000000000000000    -4.842914833900000
1 3
    -0.024468501297546    -0.000000000000000    -0.000000000000000
    -0.000000000000000    -0.024468501297546     0.000000000000000
    -0.000000000000000    -0.000000000000000    -4.947814504186202
1 4
    -7.206736180434719    -0.000000000000000    -0.000000000000000
    -0.000000000000000    -7.206736827347386    -0.000000000000000
     0.000000000000000     0.000000000000000    -1.589407173469033
2 1
    -0.301685265700000    -0.000000000000000     0.000000000000000
    -0.000000000000000    -0.301685265700000     0.000000000000000
    -0.000000000000000    -0.000000000000000    -4.842914833900000
2 2
     7.531214128100000     0.000000000000000    -0.000000000000000
     0.000000000000000     7.531214782000000    -0.000000000000000
    -0.000000000000000    -0.000000000000000    11.373752854099999
2 3
    -7.206736180434719    -0.000000000000000     0.000000000000000
    -0.000000000000000    -7.206736827347386     0.000000000000000
    -0.000000000000000    -0.000000000000000    -1.589407173469033
2 4
    -0.024468501297546    -0.000000000000000    -0.000000000000000
    -0.000000000000000    -0.024468501297546    -0.000000000000000
    -0.000000000000000     0.000000000000000    -4.947814504186202
3 1
    -0.024468501297546    -0.000000000000000    -0.000000000000000
    -0.000000000000000    -0.024468501297546    -0.000000000000000
    -0.000000000000000     0.000000000000000    -4.947814504186202
3 2
    -7.206736180434719    -0.000000000000000    -0.000000000000000
    -0.000000000000000    -7.206736827347386    -0.000000000000000
     0.000000000000000     0.000000000000000    -1.589407173469033
3 3
     8.157551200000000     0.000000000000000    -0.000000000000000
     0.000000000000000     8.157551840000000    -0.000000000000000
    -0.000000000000000    -0.000000000000000    11.483266560000001
3 4
    -0.924670400000000    -0.000000000000000    -0.000000000000000
    -0.000000000000000    -0.924670560000000    -0.000000000000000
     0.000000000000000     0.000000000000000    -4.939660960000000
4 1
    -7.206736180434719    -0.000000000000000     0.000000000000000
    -0.000000000000000    -7.206736827347386     0.000000000000000
    -0.000000000000000    -0.000000000000000    -1.589407173469033
4 2
    -0.024468501297546    -0.000000000000000    -0.000000000000000
    -0.000000000000000    -0.024468501297546     0.000000000000000
    -0.000000000000000    -0.000000000000000    -4.947814504186202
4 3
    -0.924670400000000    -0.000000000000000     0.000000000000000
    -0.000000000000000    -0.924670560000000     0.000000000000000
    -0.000000000000000    -0.000000000000000    -4.939660960000000
4 4
     8.157551200000000     0.000000000000000     0.000000000000000
     0.000000000000000     8.157551840000000     0.000000000000000
     0.000000000000000     0.000000000000000    11.483266560000001