128  
2    

1    
  0.0000000000000000   0.0070710678118655   0.0070710678118655
  -0.0012729000   -0.0658281900   -0.0658322400
  -0.0017531900    0.0031130100    0.0031149100
   0.0000058700    0.0005200600    0.0005221300
   0.0017787100    0.0030780200    0.0030785500
   0.0024726400   -0.0047284900    0.0024117300
  -0.0001098700    0.0003672600    0.0005707500
   0.0001307000    0.0005738800    0.0003665300
  -0.0024445000    0.0023907200   -0.0047302800
   0.0004690200   -0.0016707000    0.0000619800
   0.0000127000    0.0004876200    0.0004878600
  -0.0004421400    0.0000607000   -0.0016674900
   0.0000140500    0.0004879400    0.0004927900
   0.0006967100   -0.0029696700    0.0006316700
  -0.0006855900    0.0006323300   -0.0029586700
  -0.0001086300    0.0003336300    0.0006106900
   0.0001273700    0.0006061100    0.0003316500
   0.0024735900    0.0024112200   -0.0047296400
  -0.0001104100    0.0005711800    0.0003673500
   0.0001306600    0.0003678000    0.0005734500
  -0.0024441000   -0.0047294600    0.0023893500
   0.0008289300   -0.0000911500   -0.0000909000
   0.0000127000    0.0001633200    0.0001622100
  -0.0008048400   -0.0000898800   -0.0000907100
   0.0000144500    0.0000550800    0.0000550300
   0.0004705100    0.0000300200   -0.0002442600
  -0.0004457600   -0.0002450200    0.0000286500
  -0.0000394600    0.0001769100    0.0001022700
   0.0000624800    0.0001021900    0.0001761600
   0.0000099700   -0.0000598100   -0.0000582700
   0.0000128100    0.0003135100    0.0000532400
   0.0000104400    0.0002265300    0.0002262900
   0.0000115100    0.0000547100    0.0003123800
   0.0004677500    0.0000611700   -0.0016714100
   0.0000121000    0.0004883600    0.0004885300
  -0.0004423500   -0.0016667400    0.0000618100
   0.0000131500    0.0004914900    0.0004869000
   0.0004706200   -0.0002445800    0.0000306000
  -0.0004468100    0.0000297100   -0.0002452600
  -0.0000401200    0.0001031800    0.0001760000
   0.0000614700    0.0001743800    0.0001016700
   0.0000092600   -0.0003930500   -0.0003925500
   0.0000288900    0.0001407700    0.0001413500
   0.0000106400    0.0001267300    0.0001276100
  -0.0000059700    0.0001399400    0.0001412000
   0.0007111200   -0.0000038600   -0.0002100500
   0.0000461300    0.0001912100    0.0000844300
  -0.0000241700    0.0000852700    0.0001919500
  -0.0006861500   -0.0002083600   -0.0000045600
   0.0006969200    0.0006324300   -0.0029694900
  -0.0006860600   -0.0029583200    0.0006337000
  -0.0001095500    0.0006100900    0.0003343100
   0.0001276200    0.0003319800    0.0006054200
   0.0000089800   -0.0000579700   -0.0000585300
   0.0000124600    0.0000529800    0.0003135200
   0.0000090500    0.0002254800    0.0002260100
   0.0000103300    0.0003125000    0.0000544900
   0.0007112300   -0.0002099700   -0.0000033700
   0.0000454700    0.0000843200    0.0001917700
  -0.0000238400    0.0001902900    0.0000865100
  -0.0006862500   -0.0000056300   -0.0002072500
   0.0003498800   -0.0000913700   -0.0000911300
   0.0000125700    0.0000527100    0.0000534500
  -0.0003254700   -0.0000906500   -0.0000894200
   0.0000129900    0.0001637700    0.0001644500
   0.0250862000    0.0293293600    0.0293281100
   0.0002401700   -0.0006899100   -0.0006903000
  -0.0002761000   -0.0006969700   -0.0006980400
  -0.0240294000    0.0284941500    0.0284922200
  -0.0011247700    0.0011411800   -0.0010564600
  -0.0000088700   -0.0003237000   -0.0003215100
   0.0011115800   -0.0010607300    0.0011460300
  -0.0000138400   -0.0000263000   -0.0000364900
   0.0003559800    0.0008858300    0.0004245700
  -0.0003742100    0.0004233900    0.0008847700
   0.0000402200   -0.0001132300   -0.0001502500
  -0.0000611400   -0.0001504000   -0.0001115400
   0.0000855500    0.0042774900    0.0044344600
   0.0002410100   -0.0004187000   -0.0002848300
  -0.0000132300   -0.0001639000   -0.0001633400
  -0.0002634300   -0.0002796300   -0.0004131500
  -0.0011247100   -0.0010571600    0.0011405600
  -0.0000093300   -0.0003210700   -0.0003233700
   0.0011111100    0.0011484400   -0.0010620900
  -0.0000141400   -0.0000362900   -0.0000280200
  -0.0003483900    0.0000163100    0.0000174600
   0.0003300800    0.0000174900    0.0000170200
   0.0000444900   -0.0000454400   -0.0000466200
  -0.0000648300   -0.0000454200   -0.0000464900
  -0.0000111200    0.0000589800    0.0000580400
   0.0000319700   -0.0001034000   -0.0000497400
  -0.0000126200   -0.0000836300   -0.0000841800
  -0.0000551300   -0.0000494500   -0.0001018800
  -0.0004658100   -0.0002330100    0.0004208000
  -0.0000093800   -0.0001571300   -0.0000894700
  -0.0000157300   -0.0000877900   -0.0001560900
   0.0004395100    0.0004204800   -0.0002278100
   0.0003567600    0.0004238200    0.0008867100
  -0.0003737500    0.0008865900    0.0004233400
   0.0000390800   -0.0001510000   -0.0001143200
  -0.0000620700   -0.0001132900   -0.0001521800
  -0.0000106400    0.0000575500    0.0000603200
   0.0000303900   -0.0000492300   -0.0001022800
  -0.0000130400   -0.0000834200   -0.0000849200
  -0.0000562000   -0.0001020200   -0.0000487700
  -0.0002886000    0.0000612900    0.0000619700
  -0.0000157200   -0.0000811500   -0.0000815800
  -0.0000081800   -0.0000797600   -0.0000798600
   0.0002659800    0.0000626300    0.0000644000
  -0.0001837100    0.0000112200    0.0001245000
  -0.0000088100   -0.0000920000   -0.0000928800
   0.0001669400    0.0001275400    0.0000127100
  -0.0000100200   -0.0000491800   -0.0000483700
   0.0000844300    0.0044353000    0.0042765300
   0.0002399100   -0.0002842400   -0.0004191200
  -0.0000141000   -0.0001636100   -0.0001643900
  -0.0002646600   -0.0004131200   -0.0002809400
  -0.0004667500    0.0004216900   -0.0002309700
  -0.0000103900   -0.0000894000   -0.0001571200
  -0.0000161900   -0.0001561200   -0.0000902700
   0.0004391900   -0.0002275500    0.0004216300
  -0.0001838900    0.0001250400    0.0000117100
  -0.0000091500   -0.0000935600   -0.0000928200
   0.0001665900    0.0000112600    0.0001273600
  -0.0000107500   -0.0000486600   -0.0000470000
  -0.0001957500    0.0001690200    0.0001685500
   0.0001766500    0.0001697800    0.0001706100
   0.0000535100   -0.0001130200   -0.0001113100
  -0.0000750700   -0.0001118800   -0.0001113900

65   
  0.0000000000000000   0.0070710678118655   0.0070710678118655
   0.0240110700    0.0285281700    0.0285281300
  -0.0251060300    0.0293351600    0.0293360200
   0.0015021800   -0.0006686900   -0.0006681500
  -0.0014647000   -0.0006721200   -0.0006725900
  -0.0000773800    0.0044239900    0.0043291600
   0.0000165600   -0.0000011600   -0.0006514300
   0.0000092500   -0.0001398900   -0.0001423700
   0.0000005400   -0.0006521800   -0.0000032300
  -0.0004905800    0.0017762200   -0.0004221100
   0.0000367400   -0.0000537300   -0.0001653500
  -0.0000151200   -0.0001673000   -0.0000523100
   0.0005180100   -0.0004236700    0.0017821300
  -0.0002359300    0.0002937200   -0.0001674400
   0.0000128000   -0.0000132800   -0.0000085900
   0.0002598800   -0.0001634800    0.0002965900
   0.0000115700   -0.0002983500   -0.0002982400
  -0.0000761700    0.0043296300    0.0044249300
   0.0000179300   -0.0006526500   -0.0000000400
   0.0000082000   -0.0001424600   -0.0001381700
  -0.0000001500   -0.0000052700   -0.0006521100
  -0.0006907100    0.0001914100    0.0001924700
  -0.0000526000   -0.0000908100   -0.0000895000
   0.0000755600   -0.0000893800   -0.0000898400
   0.0007166300    0.0001904500    0.0001908900
  -0.0002407300    0.0000712600    0.0001118500
   0.0000117600   -0.0000265000   -0.0000253500
   0.0002633100    0.0001102200    0.0000727400
   0.0000097400   -0.0000698900   -0.0000696300
  -0.0001825000    0.0001813100    0.0000519800
   0.0002057300    0.0000513400    0.0001843900
   0.0000150200   -0.0001268100   -0.0000743500
   0.0000054900   -0.0000757200   -0.0001252300
  -0.0004916500   -0.0004224500    0.0017760800
   0.0000376900   -0.0001672600   -0.0000530600
  -0.0000141000   -0.0000533300   -0.0001655600
   0.0005179900    0.0017813300   -0.0004236000
  -0.0002402300    0.0001103600    0.0000725100
   0.0000114900   -0.0000263600   -0.0000253500
   0.0002626400    0.0000715400    0.0001117300
   0.0000104700   -0.0000703300   -0.0000710900
  -0.0001135200    0.0000848300    0.0000850300
   0.0001369500    0.0000846100    0.0000858200
   0.0000140700   -0.0000593200   -0.0000584900
   0.0000065500   -0.0000587300   -0.0000582300
   0.0000123900    0.0000811500    0.0000825200
  -0.0000384200   -0.0000877800   -0.0000201200
   0.0000122100   -0.0000626700   -0.0000620800
   0.0000602000   -0.0000211400   -0.0000855800
  -0.0002358900   -0.0001662100    0.0002933800
   0.0000125500   -0.0000085200   -0.0000135600
   0.0002595400    0.0002962500   -0.0001638700
   0.0000107300   -0.0002979300   -0.0002980700
  -0.0001831400    0.0000515700    0.0001823200
   0.0002062100    0.0001839800    0.0000512100
   0.0000144800   -0.0000736700   -0.0001258200
   0.0000067900   -0.0001261100   -0.0000758100
   0.0000123500    0.0000814500    0.0000821200
  -0.0000385200   -0.0000201400   -0.0000846500
   0.0000125300   -0.0000623400   -0.0000614400
   0.0000605400   -0.0000866400   -0.0000202800
  -0.0003274900    0.0000399300    0.0000401300
  -0.0000286700   -0.0000253000   -0.0000245500
   0.0000504700   -0.0000247800   -0.0000256400
   0.0003513400    0.0000397500    0.0000411000
   0.0012724900   -0.0767744400   -0.0767776800
  -0.0024623100    0.0034047100    0.0034035100
  -0.0000239100    0.0010122000    0.0010121800
   0.0024084500    0.0033425900    0.0033410400
   0.0030633900   -0.0021176200    0.0027349300
  -0.0000078100    0.0000606100    0.0001620700
  -0.0000129900    0.0001627300    0.0000608300
  -0.0030707400    0.0027348900   -0.0021176200
   0.0005328100   -0.0004401400    0.0004662400
  -0.0000113400    0.0000580300    0.0000575400
  -0.0005527300    0.0004617400   -0.0004373300
  -0.0000111700    0.0000564700    0.0000575300
   0.0006210300    0.0003137600    0.0002979600
  -0.0006419800    0.0003016000    0.0003210500
  -0.0000742100    0.0001023000    0.0001189600
   0.0000503800    0.0001190700    0.0001031400
   0.0030629800    0.0027359200   -0.0021201700
  -0.0000073300    0.0001635100    0.0000572300
  -0.0000117900    0.0000605100    0.0001632200
  -0.0030706200   -0.0021167300    0.0027340700
   0.0002026200   -0.0000321800   -0.0000325700
  -0.0000116700    0.0000390200    0.0000378800
  -0.0002270600   -0.0000327200   -0.0000335900
  -0.0000115200    0.0000132200    0.0000134300
   0.0000802800   -0.0000350900   -0.0000519400
  -0.0001037900   -0.0000515600   -0.0000354500
  -0.0000267500    0.0000275100    0.0000214600
   0.0000047000    0.0000240000    0.0000267200
  -0.0000131800   -0.0003307300   -0.0003309900
  -0.0000106500    0.0000831300    0.0000120100
  -0.0000112100    0.0000429600    0.0000428200
  -0.0000113400    0.0000143100    0.0000836100
   0.0005329400    0.0004671200   -0.0004390300
  -0.0000116700    0.0000576400    0.0000563100
  -0.0005533300   -0.0004373500    0.0004607300
  -0.0000098400    0.0000566600    0.0000571500
   0.0000794300   -0.0000518300   -0.0000354300
  -0.0001040100   -0.0000351800   -0.0000532500
  -0.0000269500    0.0000233100    0.0000285400
   0.0000046600    0.0000277100    0.0000242400
  -0.0000114300   -0.0000786900   -0.0000792900
  -0.0000066800    0.0000169700    0.0000160500
  -0.0000106600    0.0000302100    0.0000309500
  -0.0000158600    0.0000172700    0.0000157700
   0.0001414500    0.0000095000   -0.0000947200
  -0.0000005000    0.0000332400    0.0000175700
  -0.0000231300    0.0000180000    0.0000309300
  -0.0001629200   -0.0000963400    0.0000084500
   0.0006211400    0.0002983900    0.0003118700
  -0.0006426700    0.0003219000    0.0003029500
  -0.0000730100    0.0001189100    0.0001022500
   0.0000503700    0.0001033700    0.0001188800
  -0.0000138400   -0.0003306900   -0.0003323800
  -0.0000106000    0.0000128500    0.0000830900
  -0.0000115200    0.0000426900    0.0000429500
  -0.0000111200    0.0000827400    0.0000122300
   0.0001405200   -0.0000951900    0.0000088300
  -0.0000007000    0.0000185600    0.0000321700
  -0.0000216200    0.0000328000    0.0000170500
  -0.0001636500    0.0000101300   -0.0000960100
   0.0000834400   -0.0000330500   -0.0000329500
  -0.0000105400    0.0000138000    0.0000133600
  -0.0001041500   -0.0000323600   -0.0000327100
  -0.0000104900    0.0000379800    0.0000390200
