phonopy:
  version: 2.9.3
  frequency_unit_conversion_factor: 15.633302
  symmetry_tolerance: 1.00000e-02
  configuration:
    displacement_distance: "0.01"
    create_displacements: ".true."
    dim: "4 4 4"
    symmetry_tolerance: "0.01"

physical_unit:
  atomic_mass: "AMU"
  length: "angstrom"
  force_constants: "eV/angstrom^2"

space_group:
  type: "F-43m"
  number: 216
  Hall_symbol: "F -4 2 3"

supercell_matrix:
- [   4,   0,   0 ]
- [   0,   4,   0 ]
- [   0,   0,   4 ]

primitive_cell:
  lattice:
  - [     0.000000000000000,     2.825834819785839,     2.825834819785839 ] # a
  - [     2.825834819785839,     0.000000000000000,     2.825834819785839 ] # b
  - [     2.825834819785839,     2.825834819785839,     0.000000000000000 ] # c
  points:
  - symbol: Ga # 1
    coordinates: [  0.000000000000000,  0.000000000000000,  0.000000000000000 ]
    mass: 69.723000
  - symbol: As # 2
    coordinates: [  0.250000000000000,  0.250000000000000,  0.250000000000000 ]
    mass: 74.921600
  reciprocal_lattice: # without 2pi
  - [    -0.176938862986299,     0.176938862986299,     0.176938862986299 ] # a*
  - [     0.176938862986299,    -0.176938862986299,     0.176938862986299 ] # b*
  - [     0.176938862986299,     0.176938862986299,    -0.176938862986299 ] # c*

unit_cell:
  lattice:
  - [    -0.000000000000000,     2.825834819785839,     2.825834819785839 ] # a
  - [     2.825834819785839,     0.000000000000000,     2.825834819785839 ] # b
  - [     2.825834819785839,     2.825834819785839,    -0.000000000000000 ] # c
  points:
  - symbol: Ga # 1
    coordinates: [  0.000000000000000,  0.000000000000000,  0.000000000000000 ]
    mass: 69.723000
    reduced_to: 1
  - symbol: As # 2
    coordinates: [  0.250000000000000,  0.250000000000000,  0.250000000000000 ]
    mass: 74.921600
    reduced_to: 2

supercell:
  lattice:
  - [     0.000000000000000,    11.303339279143355,    11.303339279143355 ] # a
  - [    11.303339279143355,     0.000000000000000,    11.303339279143355 ] # b
  - [    11.303339279143355,    11.303339279143355,     0.000000000000000 ] # c
  points:
  - symbol: Ga # 1
    coordinates: [  0.000000000000000,  0.000000000000000,  0.000000000000000 ]
    mass: 69.723000
    reduced_to: 1
  - symbol: Ga # 2
    coordinates: [  0.250000000000000,  0.000000000000000,  0.000000000000000 ]
    mass: 69.723000
    reduced_to: 1
  - symbol: Ga # 3
    coordinates: [  0.500000000000000,  0.000000000000000,  0.000000000000000 ]
    mass: 69.723000
    reduced_to: 1
  - symbol: Ga # 4
    coordinates: [  0.750000000000000,  0.000000000000000,  0.000000000000000 ]
    mass: 69.723000
    reduced_to: 1
  - symbol: Ga # 5
    coordinates: [  0.000000000000000,  0.250000000000000,  0.000000000000000 ]
    mass: 69.723000
    reduced_to: 1
  - symbol: Ga # 6
    coordinates: [  0.250000000000000,  0.250000000000000,  0.000000000000000 ]
    mass: 69.723000
    reduced_to: 1
  - symbol: Ga # 7
    coordinates: [  0.500000000000000,  0.250000000000000,  0.000000000000000 ]
    mass: 69.723000
    reduced_to: 1
  - symbol: Ga # 8
    coordinates: [  0.750000000000000,  0.250000000000000,  0.000000000000000 ]
    mass: 69.723000
    reduced_to: 1
  - symbol: Ga # 9
    coordinates: [  0.000000000000000,  0.500000000000000,  0.000000000000000 ]
    mass: 69.723000
    reduced_to: 1
  - symbol: Ga # 10
    coordinates: [  0.250000000000000,  0.500000000000000,  0.000000000000000 ]
    mass: 69.723000
    reduced_to: 1
  - symbol: Ga # 11
    coordinates: [  0.500000000000000,  0.500000000000000,  0.000000000000000 ]
    mass: 69.723000
    reduced_to: 1
  - symbol: Ga # 12
    coordinates: [  0.750000000000000,  0.500000000000000,  0.000000000000000 ]
    mass: 69.723000
    reduced_to: 1
  - symbol: Ga # 13
    coordinates: [  0.000000000000000,  0.750000000000000,  0.000000000000000 ]
    mass: 69.723000
    reduced_to: 1
  - symbol: Ga # 14
    coordinates: [  0.250000000000000,  0.750000000000000,  0.000000000000000 ]
    mass: 69.723000
    reduced_to: 1
  - symbol: Ga # 15
    coordinates: [  0.500000000000000,  0.750000000000000,  0.000000000000000 ]
    mass: 69.723000
    reduced_to: 1
  - symbol: Ga # 16
    coordinates: [  0.750000000000000,  0.750000000000000,  0.000000000000000 ]
    mass: 69.723000
    reduced_to: 1
  - symbol: Ga # 17
    coordinates: [  0.000000000000000,  0.000000000000000,  0.250000000000000 ]
    mass: 69.723000
    reduced_to: 1
  - symbol: Ga # 18
    coordinates: [  0.250000000000000,  0.000000000000000,  0.250000000000000 ]
    mass: 69.723000
    reduced_to: 1
  - symbol: Ga # 19
    coordinates: [  0.500000000000000,  0.000000000000000,  0.250000000000000 ]
    mass: 69.723000
    reduced_to: 1
  - symbol: Ga # 20
    coordinates: [  0.750000000000000,  0.000000000000000,  0.250000000000000 ]
    mass: 69.723000
    reduced_to: 1
  - symbol: Ga # 21
    coordinates: [  0.000000000000000,  0.250000000000000,  0.250000000000000 ]
    mass: 69.723000
    reduced_to: 1
  - symbol: Ga # 22
    coordinates: [  0.250000000000000,  0.250000000000000,  0.250000000000000 ]
    mass: 69.723000
    reduced_to: 1
  - symbol: Ga # 23
    coordinates: [  0.500000000000000,  0.250000000000000,  0.250000000000000 ]
    mass: 69.723000
    reduced_to: 1
  - symbol: Ga # 24
    coordinates: [  0.750000000000000,  0.250000000000000,  0.250000000000000 ]
    mass: 69.723000
    reduced_to: 1
  - symbol: Ga # 25
    coordinates: [  0.000000000000000,  0.500000000000000,  0.250000000000000 ]
    mass: 69.723000
    reduced_to: 1
  - symbol: Ga # 26
    coordinates: [  0.250000000000000,  0.500000000000000,  0.250000000000000 ]
    mass: 69.723000
    reduced_to: 1
  - symbol: Ga # 27
    coordinates: [  0.500000000000000,  0.500000000000000,  0.250000000000000 ]
    mass: 69.723000
    reduced_to: 1
  - symbol: Ga # 28
    coordinates: [  0.750000000000000,  0.500000000000000,  0.250000000000000 ]
    mass: 69.723000
    reduced_to: 1
  - symbol: Ga # 29
    coordinates: [  0.000000000000000,  0.750000000000000,  0.250000000000000 ]
    mass: 69.723000
    reduced_to: 1
  - symbol: Ga # 30
    coordinates: [  0.250000000000000,  0.750000000000000,  0.250000000000000 ]
    mass: 69.723000
    reduced_to: 1
  - symbol: Ga # 31
    coordinates: [  0.500000000000000,  0.750000000000000,  0.250000000000000 ]
    mass: 69.723000
    reduced_to: 1
  - symbol: Ga # 32
    coordinates: [  0.750000000000000,  0.750000000000000,  0.250000000000000 ]
    mass: 69.723000
    reduced_to: 1
  - symbol: Ga # 33
    coordinates: [  0.000000000000000,  0.000000000000000,  0.500000000000000 ]
    mass: 69.723000
    reduced_to: 1
  - symbol: Ga # 34
    coordinates: [  0.250000000000000,  0.000000000000000,  0.500000000000000 ]
    mass: 69.723000
    reduced_to: 1
  - symbol: Ga # 35
    coordinates: [  0.500000000000000,  0.000000000000000,  0.500000000000000 ]
    mass: 69.723000
    reduced_to: 1
  - symbol: Ga # 36
    coordinates: [  0.750000000000000,  0.000000000000000,  0.500000000000000 ]
    mass: 69.723000
    reduced_to: 1
  - symbol: Ga # 37
    coordinates: [  0.000000000000000,  0.250000000000000,  0.500000000000000 ]
    mass: 69.723000
    reduced_to: 1
  - symbol: Ga # 38
    coordinates: [  0.250000000000000,  0.250000000000000,  0.500000000000000 ]
    mass: 69.723000
    reduced_to: 1
  - symbol: Ga # 39
    coordinates: [  0.500000000000000,  0.250000000000000,  0.500000000000000 ]
    mass: 69.723000
    reduced_to: 1
  - symbol: Ga # 40
    coordinates: [  0.750000000000000,  0.250000000000000,  0.500000000000000 ]
    mass: 69.723000
    reduced_to: 1
  - symbol: Ga # 41
    coordinates: [  0.000000000000000,  0.500000000000000,  0.500000000000000 ]
    mass: 69.723000
    reduced_to: 1
  - symbol: Ga # 42
    coordinates: [  0.250000000000000,  0.500000000000000,  0.500000000000000 ]
    mass: 69.723000
    reduced_to: 1
  - symbol: Ga # 43
    coordinates: [  0.500000000000000,  0.500000000000000,  0.500000000000000 ]
    mass: 69.723000
    reduced_to: 1
  - symbol: Ga # 44
    coordinates: [  0.750000000000000,  0.500000000000000,  0.500000000000000 ]
    mass: 69.723000
    reduced_to: 1
  - symbol: Ga # 45
    coordinates: [  0.000000000000000,  0.750000000000000,  0.500000000000000 ]
    mass: 69.723000
    reduced_to: 1
  - symbol: Ga # 46
    coordinates: [  0.250000000000000,  0.750000000000000,  0.500000000000000 ]
    mass: 69.723000
    reduced_to: 1
  - symbol: Ga # 47
    coordinates: [  0.500000000000000,  0.750000000000000,  0.500000000000000 ]
    mass: 69.723000
    reduced_to: 1
  - symbol: Ga # 48
    coordinates: [  0.750000000000000,  0.750000000000000,  0.500000000000000 ]
    mass: 69.723000
    reduced_to: 1
  - symbol: Ga # 49
    coordinates: [  0.000000000000000,  0.000000000000000,  0.750000000000000 ]
    mass: 69.723000
    reduced_to: 1
  - symbol: Ga # 50
    coordinates: [  0.250000000000000,  0.000000000000000,  0.750000000000000 ]
    mass: 69.723000
    reduced_to: 1
  - symbol: Ga # 51
    coordinates: [  0.500000000000000,  0.000000000000000,  0.750000000000000 ]
    mass: 69.723000
    reduced_to: 1
  - symbol: Ga # 52
    coordinates: [  0.750000000000000,  0.000000000000000,  0.750000000000000 ]
    mass: 69.723000
    reduced_to: 1
  - symbol: Ga # 53
    coordinates: [  0.000000000000000,  0.250000000000000,  0.750000000000000 ]
    mass: 69.723000
    reduced_to: 1
  - symbol: Ga # 54
    coordinates: [  0.250000000000000,  0.250000000000000,  0.750000000000000 ]
    mass: 69.723000
    reduced_to: 1
  - symbol: Ga # 55
    coordinates: [  0.500000000000000,  0.250000000000000,  0.750000000000000 ]
    mass: 69.723000
    reduced_to: 1
  - symbol: Ga # 56
    coordinates: [  0.750000000000000,  0.250000000000000,  0.750000000000000 ]
    mass: 69.723000
    reduced_to: 1
  - symbol: Ga # 57
    coordinates: [  0.000000000000000,  0.500000000000000,  0.750000000000000 ]
    mass: 69.723000
    reduced_to: 1
  - symbol: Ga # 58
    coordinates: [  0.250000000000000,  0.500000000000000,  0.750000000000000 ]
    mass: 69.723000
    reduced_to: 1
  - symbol: Ga # 59
    coordinates: [  0.500000000000000,  0.500000000000000,  0.750000000000000 ]
    mass: 69.723000
    reduced_to: 1
  - symbol: Ga # 60
    coordinates: [  0.750000000000000,  0.500000000000000,  0.750000000000000 ]
    mass: 69.723000
    reduced_to: 1
  - symbol: Ga # 61
    coordinates: [  0.000000000000000,  0.750000000000000,  0.750000000000000 ]
    mass: 69.723000
    reduced_to: 1
  - symbol: Ga # 62
    coordinates: [  0.250000000000000,  0.750000000000000,  0.750000000000000 ]
    mass: 69.723000
    reduced_to: 1
  - symbol: Ga # 63
    coordinates: [  0.500000000000000,  0.750000000000000,  0.750000000000000 ]
    mass: 69.723000
    reduced_to: 1
  - symbol: Ga # 64
    coordinates: [  0.750000000000000,  0.750000000000000,  0.750000000000000 ]
    mass: 69.723000
    reduced_to: 1
  - symbol: As # 65
    coordinates: [  0.062500000000000,  0.062500000000000,  0.062500000000000 ]
    mass: 74.921600
    reduced_to: 65
  - symbol: As # 66
    coordinates: [  0.312500000000000,  0.062500000000000,  0.062500000000000 ]
    mass: 74.921600
    reduced_to: 65
  - symbol: As # 67
    coordinates: [  0.562500000000000,  0.062500000000000,  0.062500000000000 ]
    mass: 74.921600
    reduced_to: 65
  - symbol: As # 68
    coordinates: [  0.812500000000000,  0.062500000000000,  0.062500000000000 ]
    mass: 74.921600
    reduced_to: 65
  - symbol: As # 69
    coordinates: [  0.062500000000000,  0.312500000000000,  0.062500000000000 ]
    mass: 74.921600
    reduced_to: 65
  - symbol: As # 70
    coordinates: [  0.312500000000000,  0.312500000000000,  0.062500000000000 ]
    mass: 74.921600
    reduced_to: 65
  - symbol: As # 71
    coordinates: [  0.562500000000000,  0.312500000000000,  0.062500000000000 ]
    mass: 74.921600
    reduced_to: 65
  - symbol: As # 72
    coordinates: [  0.812500000000000,  0.312500000000000,  0.062500000000000 ]
    mass: 74.921600
    reduced_to: 65
  - symbol: As # 73
    coordinates: [  0.062500000000000,  0.562500000000000,  0.062500000000000 ]
    mass: 74.921600
    reduced_to: 65
  - symbol: As # 74
    coordinates: [  0.312500000000000,  0.562500000000000,  0.062500000000000 ]
    mass: 74.921600
    reduced_to: 65
  - symbol: As # 75
    coordinates: [  0.562500000000000,  0.562500000000000,  0.062500000000000 ]
    mass: 74.921600
    reduced_to: 65
  - symbol: As # 76
    coordinates: [  0.812500000000000,  0.562500000000000,  0.062500000000000 ]
    mass: 74.921600
    reduced_to: 65
  - symbol: As # 77
    coordinates: [  0.062500000000000,  0.812500000000000,  0.062500000000000 ]
    mass: 74.921600
    reduced_to: 65
  - symbol: As # 78
    coordinates: [  0.312500000000000,  0.812500000000000,  0.062500000000000 ]
    mass: 74.921600
    reduced_to: 65
  - symbol: As # 79
    coordinates: [  0.562500000000000,  0.812500000000000,  0.062500000000000 ]
    mass: 74.921600
    reduced_to: 65
  - symbol: As # 80
    coordinates: [  0.812500000000000,  0.812500000000000,  0.062500000000000 ]
    mass: 74.921600
    reduced_to: 65
  - symbol: As # 81
    coordinates: [  0.062500000000000,  0.062500000000000,  0.312500000000000 ]
    mass: 74.921600
    reduced_to: 65
  - symbol: As # 82
    coordinates: [  0.312500000000000,  0.062500000000000,  0.312500000000000 ]
    mass: 74.921600
    reduced_to: 65
  - symbol: As # 83
    coordinates: [  0.562500000000000,  0.062500000000000,  0.312500000000000 ]
    mass: 74.921600
    reduced_to: 65
  - symbol: As # 84
    coordinates: [  0.812500000000000,  0.062500000000000,  0.312500000000000 ]
    mass: 74.921600
    reduced_to: 65
  - symbol: As # 85
    coordinates: [  0.062500000000000,  0.312500000000000,  0.312500000000000 ]
    mass: 74.921600
    reduced_to: 65
  - symbol: As # 86
    coordinates: [  0.312500000000000,  0.312500000000000,  0.312500000000000 ]
    mass: 74.921600
    reduced_to: 65
  - symbol: As # 87
    coordinates: [  0.562500000000000,  0.312500000000000,  0.312500000000000 ]
    mass: 74.921600
    reduced_to: 65
  - symbol: As # 88
    coordinates: [  0.812500000000000,  0.312500000000000,  0.312500000000000 ]
    mass: 74.921600
    reduced_to: 65
  - symbol: As # 89
    coordinates: [  0.062500000000000,  0.562500000000000,  0.312500000000000 ]
    mass: 74.921600
    reduced_to: 65
  - symbol: As # 90
    coordinates: [  0.312500000000000,  0.562500000000000,  0.312500000000000 ]
    mass: 74.921600
    reduced_to: 65
  - symbol: As # 91
    coordinates: [  0.562500000000000,  0.562500000000000,  0.312500000000000 ]
    mass: 74.921600
    reduced_to: 65
  - symbol: As # 92
    coordinates: [  0.812500000000000,  0.562500000000000,  0.312500000000000 ]
    mass: 74.921600
    reduced_to: 65
  - symbol: As # 93
    coordinates: [  0.062500000000000,  0.812500000000000,  0.312500000000000 ]
    mass: 74.921600
    reduced_to: 65
  - symbol: As # 94
    coordinates: [  0.312500000000000,  0.812500000000000,  0.312500000000000 ]
    mass: 74.921600
    reduced_to: 65
  - symbol: As # 95
    coordinates: [  0.562500000000000,  0.812500000000000,  0.312500000000000 ]
    mass: 74.921600
    reduced_to: 65
  - symbol: As # 96
    coordinates: [  0.812500000000000,  0.812500000000000,  0.312500000000000 ]
    mass: 74.921600
    reduced_to: 65
  - symbol: As # 97
    coordinates: [  0.062500000000000,  0.062500000000000,  0.562500000000000 ]
    mass: 74.921600
    reduced_to: 65
  - symbol: As # 98
    coordinates: [  0.312500000000000,  0.062500000000000,  0.562500000000000 ]
    mass: 74.921600
    reduced_to: 65
  - symbol: As # 99
    coordinates: [  0.562500000000000,  0.062500000000000,  0.562500000000000 ]
    mass: 74.921600
    reduced_to: 65
  - symbol: As # 100
    coordinates: [  0.812500000000000,  0.062500000000000,  0.562500000000000 ]
    mass: 74.921600
    reduced_to: 65
  - symbol: As # 101
    coordinates: [  0.062500000000000,  0.312500000000000,  0.562500000000000 ]
    mass: 74.921600
    reduced_to: 65
  - symbol: As # 102
    coordinates: [  0.312500000000000,  0.312500000000000,  0.562500000000000 ]
    mass: 74.921600
    reduced_to: 65
  - symbol: As # 103
    coordinates: [  0.562500000000000,  0.312500000000000,  0.562500000000000 ]
    mass: 74.921600
    reduced_to: 65
  - symbol: As # 104
    coordinates: [  0.812500000000000,  0.312500000000000,  0.562500000000000 ]
    mass: 74.921600
    reduced_to: 65
  - symbol: As # 105
    coordinates: [  0.062500000000000,  0.562500000000000,  0.562500000000000 ]
    mass: 74.921600
    reduced_to: 65
  - symbol: As # 106
    coordinates: [  0.312500000000000,  0.562500000000000,  0.562500000000000 ]
    mass: 74.921600
    reduced_to: 65
  - symbol: As # 107
    coordinates: [  0.562500000000000,  0.562500000000000,  0.562500000000000 ]
    mass: 74.921600
    reduced_to: 65
  - symbol: As # 108
    coordinates: [  0.812500000000000,  0.562500000000000,  0.562500000000000 ]
    mass: 74.921600
    reduced_to: 65
  - symbol: As # 109
    coordinates: [  0.062500000000000,  0.812500000000000,  0.562500000000000 ]
    mass: 74.921600
    reduced_to: 65
  - symbol: As # 110
    coordinates: [  0.312500000000000,  0.812500000000000,  0.562500000000000 ]
    mass: 74.921600
    reduced_to: 65
  - symbol: As # 111
    coordinates: [  0.562500000000000,  0.812500000000000,  0.562500000000000 ]
    mass: 74.921600
    reduced_to: 65
  - symbol: As # 112
    coordinates: [  0.812500000000000,  0.812500000000000,  0.562500000000000 ]
    mass: 74.921600
    reduced_to: 65
  - symbol: As # 113
    coordinates: [  0.062500000000000,  0.062500000000000,  0.812500000000000 ]
    mass: 74.921600
    reduced_to: 65
  - symbol: As # 114
    coordinates: [  0.312500000000000,  0.062500000000000,  0.812500000000000 ]
    mass: 74.921600
    reduced_to: 65
  - symbol: As # 115
    coordinates: [  0.562500000000000,  0.062500000000000,  0.812500000000000 ]
    mass: 74.921600
    reduced_to: 65
  - symbol: As # 116
    coordinates: [  0.812500000000000,  0.062500000000000,  0.812500000000000 ]
    mass: 74.921600
    reduced_to: 65
  - symbol: As # 117
    coordinates: [  0.062500000000000,  0.312500000000000,  0.812500000000000 ]
    mass: 74.921600
    reduced_to: 65
  - symbol: As # 118
    coordinates: [  0.312500000000000,  0.312500000000000,  0.812500000000000 ]
    mass: 74.921600
    reduced_to: 65
  - symbol: As # 119
    coordinates: [  0.562500000000000,  0.312500000000000,  0.812500000000000 ]
    mass: 74.921600
    reduced_to: 65
  - symbol: As # 120
    coordinates: [  0.812500000000000,  0.312500000000000,  0.812500000000000 ]
    mass: 74.921600
    reduced_to: 65
  - symbol: As # 121
    coordinates: [  0.062500000000000,  0.562500000000000,  0.812500000000000 ]
    mass: 74.921600
    reduced_to: 65
  - symbol: As # 122
    coordinates: [  0.312500000000000,  0.562500000000000,  0.812500000000000 ]
    mass: 74.921600
    reduced_to: 65
  - symbol: As # 123
    coordinates: [  0.562500000000000,  0.562500000000000,  0.812500000000000 ]
    mass: 74.921600
    reduced_to: 65
  - symbol: As # 124
    coordinates: [  0.812500000000000,  0.562500000000000,  0.812500000000000 ]
    mass: 74.921600
    reduced_to: 65
  - symbol: As # 125
    coordinates: [  0.062500000000000,  0.812500000000000,  0.812500000000000 ]
    mass: 74.921600
    reduced_to: 65
  - symbol: As # 126
    coordinates: [  0.312500000000000,  0.812500000000000,  0.812500000000000 ]
    mass: 74.921600
    reduced_to: 65
  - symbol: As # 127
    coordinates: [  0.562500000000000,  0.812500000000000,  0.812500000000000 ]
    mass: 74.921600
    reduced_to: 65
  - symbol: As # 128
    coordinates: [  0.812500000000000,  0.812500000000000,  0.812500000000000 ]
    mass: 74.921600
    reduced_to: 65

displacements:
- atom:    1
  displacement:
    [   0.0000000000000000,  0.0070710678118655,  0.0070710678118655 ]
- atom:   65
  displacement:
    [   0.0000000000000000,  0.0070710678118655,  0.0070710678118655 ]
